<VTKFile type="ImageData" version="1.0" byte_order="LittleEndian" header_type="UInt64">	<ImageData WholeExtent="0 33 0 33 0 23" Origin="-20.625 -20.625 0.625" Spacing="1.25 1.25 1.25">
		<Piece Extent="0 33 0 33 0 23">
			<PointData Scalars="Scalars_">
				<DataArray type="Float32" Name="Scalars_" format="ascii" RangeMin="-0.999569" RangeMax="0.999569">
-0
-0
0
0
0
0
0
0
0
0
0
0
0
0
0
0
0
-0
-0
-0
-0
-0
-0
-0
-0
-0
-0
-0
-0
-0
-0
-0
-0
0
-0
-0
0
0
0
0
0
0
0
0
0
0
0
0
0
0
0
-0
-0
-0
-0
-0
-0
-0
-0
-0
-0
-0
-0
-0
-0
-0
-0
0
-0
-0
0
0
0
0
0
0
0
0
0
0
0
0
0
0
0
-0
-0
-0
-0
-0
-0
-0
-0
-0
-0
-0
-0
-0
-0
-0
-0
0
-0
-0
0
0
0
0
0
0
0
0
0
0
0
0
0
0
0
-0
-0
-0
-0
-0
-0
-0
-0
-0
-0
-0
-0
-0
-0
-0
-0
0
-0
-0
0
0
0
0
0
0
0
0
0
0
0
0
0
0
0
-0
-0
-0
-0
-0
-0
-0
-0
-0
-0
-0
-0
-0
-0
-0
-0
0
-0
-0
0
0
0
0
0
0
0
0
0
0
0
0
0
0
0
-0
-0
-0
-0
-0
-0
-0
-0
-0
-0
-0
-0
-0
-0
-0
-0
0
-0
-0
0
0
0
0
0
0
0
0
0
0
0
0
0
0
0
-0
-0
-0
-0
-0
-0
-0
-0
-0
-0
-0
-0
-0
-0
-0
-0
0
-0
-0
0
0
0
0
0
0
0
0
0
0
0
0
0
0
0
-0
-0
-0
-0
-0
-0
-0
-0
-0
-0
-0
-0
-0
-0
-0
-0
0
-0
-0
0
0
0
0
0
0
0
0
0
0
0
0
0
0
0
-0
-0
-0
-0
-0
-0
-0
-0
-0
-0
-0
-0
-0
-0
-0
-0
0
-0
-0
0
0
0
0
0
0
0
0
0
0
0
0
0
0
0
-0
-0
-0
-0
-0
-0
-0
-0
-0
-0
-0
-0
-0
-0
-0
-0
0
0
0
-0
-0
-0
-0
-0
-0
-0
-0
-0
-0
-0
-0
-0
-0
-0
0
0
0
0
0
0
0
0
0
0
0
0
0
0
0
0
-0
0
0
-0
-0
-0
-0
-0
-0
-0
-0
-0
-0
-0
-0
-0
-0
-0
0
0
0
0
0
0
0
0
0
0
0
0
0
0
0
0
-0
0
0
-0
-0
-0
-0
-0
-0
-0
-0
-0
-0
-0
-0
-0
-0
-0
0
0
0
0
0
0
0
0
0
0
0
0
0
0
0
0
-0
0
0
-0
-0
-0
-0
-0
-0
-0
-0
-0
-0
-0
-0
-0
-0
-0
0
0
0
0
0
0
0
0
0
0
0
0
0
0
0
0
-0
0
0
-0
-0
-0
-0
-0
-0
-0
-0
-0
-0
-0
-0
-0
-0
-0
0
0
0
0
0
0
0
0
0
0
0
0
0
0
0
0
-0
0
0
-0
-0
-0
-0
-0
-0
-0
-0
-0
-0
-0
-0
-0
-0
-0
0
0
0
0
0
0
0
0
0
0
0
0
0
0
0
0
-0
0
0
-0
-0
-0
-0
-0
-0
-0
-0
-0
-0
-0
-0
-0
-0
-0
0
0
0
0
0
0
0
0
0
0
0
0
0
0
0
0
-0
0
0
-0
-0
-0
-0
-0
-0
-0
-0
-0
-0
-0
-0
-0
-0
-0
0
0
0
0
0
0
0
0
0
0
0
0
0
0
0
0
-0
0
0
-0
-0
-0
-0
-0
-0
-0
-0
-0
-0
-0
-0
-0
-0
-0
0
0
0
0
0
0
0
0
0
0
0
0
0
0
0
0
-0
0
0
-0
-0
-0
-0
-0
-0
-0
-0
-0
-0
-0
-0
-0
-0
-0
0
0
0
0
0
0
0
0
0
0
0
0
0
0
0
0
-0
0
0
-0
-0
-0
-0
-0
-0
-0
-0
-0
-0
-0
-0
-0
-0
-0
0
0
0
0
0
0
0
0
0
0
0
0
0
0
0
0
-0
0
0
-0
-0
-0
-0
-0
-0
-0
-0
-0
-0
-0
-0
-0
-0
-0
0
0
0
0
0
0
0
0
0
0
0
0
0
0
0
0
-0
0
0
-0
-0
-0
-0
-0
-0
-0
-0
-0
-0
-0
-0
-0
-0
-0
0
0
0
0
0
0
0
0
0
0
0
0
0
0
0
0
-0
0
0
-0
-0
-0
-0
-0
-0
-0
-0
-0
-0
-0
-0
-0
-0
-0
0
0
0
0
0
0
0
0
0
0
0
0
0
0
0
0
-0
0
0
-0
-0
-0
-0
-0
-0
-0
-0
-0
-0
-0
-0
-0
-0
-0
0
0
0
0
0
0
0
0
0
0
0
0
0
0
0
0
-0
-0
-0
0
0
0
0
0
0
0
0
0
0
0
0
0
0
0
-0
-0
-0
-0
-0
-0
-0
-0
-0
-0
-0
-0
-0
-0
-0
-0
0
-0
-0
0
0
0
0
0
0
0
0
0
0
0
0
0
0
0
-0
-0
-0
-0
-0
-0
-0
-0
-0
-0
-0
-0
-0
-0
-0
-0
0
-0
-0
0
0
0
0
0
0
0
0
0
0
0
0
0
0
0
-0
-0
-0
-0
-0
-0
-0
-0
-0
-0
-0
-0
-0
-0
-0
-0
0
-0
-0
0
0
0
0
0
0
0
0
0
0
0
0
0
0
0
-0
-0
-0
-0
-0
-0
-0
-0
-0
-0
-0
-0
-0
-0
-0
-0
0
-0
-0
0
0
0
0
0
0
0
0
0
0
0
0
0
0
0
-0
-0
-0
-0
-0
-0
-0
-0
-0
-0
-0
-0
-0
-0
-0
-0
0
-0
-0
0
0
0
0
0
0
0
0
0
0
0
0
0
0
0
-0
-0
-0
-0
-0
-0
-0
-0
-0
-0
-0
-0
-0
-0
-0
-0
0
-0
-0
0
0
0
0
0
0
0
0
0
0
0
0
0
0
0
-0
-0
-0
-0
-0
-0
-0
-0
-0
-0
-0
-0
-0
-0
-0
-0
0
-0
-0
0
0
0
0
0
0
0
0
0
0
0
0
0
0
0
-0
-0
-0
-0
-0
-0
-0
-0
-0
-0
-0
-0
-0
-0
-0
-0
0
-0
-0
0
0
0
0
0
0
0
0
0
0
0
0
0
0
0
-0
-0
-0
-0
-0
-0
-0
-0
-0
-0
-0
-0
-0
-0
-0
-0
0
-0.08961774190673691
-0.01561531473696627
0.0590031088155006
0.1312939647069628
0.1984055072966026
0.2576903056380234
0.3068096799196214
0.3438259582220385
0.3672789142277622
0.3762433705512317
0.370365695340569
0.3498777524249325
0.3155877546990031
0.2688483815623081
0.2115034181236757
0.1458150211592617
0.07437448105269141
-0
-0.07437448105269141
-0.1458150211592617
-0.2115034181236757
-0.2688483815623081
-0.3155877546990031
-0.3498777524249325
-0.370365695340569
-0.3762433705512317
-0.3672789142277622
-0.3438259582220385
-0.3068096799196214
-0.2576903056380234
-0.1984055072966026
-0.1312939647069628
-0.0590031088155006
0.01561531473696627
-0.09219285999766996
-0.01606401249054973
0.06069853172729642
0.1350666268668627
0.2041065838949388
0.2650948993466789
0.3156256926914742
0.3537056140392021
0.3778324782467085
0.387054523448929
0.3810079563710357
0.3599313033258475
0.3246560007751883
0.2765735966408095
0.2175808562147989
0.1500049381436437
0.0765115921602426
-0
-0.0765115921602426
-0.1500049381436437
-0.2175808562147989
-0.2765735966408095
-0.3246560007751883
-0.3599313033258475
-0.3810079563710357
-0.387054523448929
-0.3778324782467085
-0.3537056140392021
-0.3156256926914742
-0.2650948993466789
-0.2041065838949388
-0.1350666268668627
-0.06069853172729642
0.01606401249054973
-0.09113113379659987
-0.01587901353340744
0.05999950556081256
0.1335111509152725
0.201756018916939
0.2620419709483895
0.3119908334662597
0.3496322127161441
0.3734812232603689
0.3825970640665125
0.3766201314342075
0.3557862047212916
0.3209171452676537
0.2733884754276791
0.2150751166607775
0.1482774272157798
0.0756304570909523
-0
-0.0756304570909523
-0.1482774272157798
-0.2150751166607775
-0.2733884754276791
-0.3209171452676537
-0.3557862047212916
-0.3766201314342075
-0.3825970640665125
-0.3734812232603689
-0.3496322127161441
-0.3119908334662597
-0.2620419709483895
-0.201756018916939
-0.1335111509152725
-0.05999950556081256
0.01587901353340744
-0.0864744465130738
-0.01506761574523776
0.05693360565456874
0.1266888976108888
0.1914465379687231
0.2486519530365197
0.2960484909730596
0.3317664426874265
0.3543967985359481
0.3630468312456474
0.3573753124167683
0.3376059733760138
0.3045186793737824
0.2594186652876219
0.20408504642866
0.1407006356080861
0.07176583505553719
-0
-0.07176583505553719
-0.1407006356080861
-0.20408504642866
-0.2594186652876219
-0.3045186793737824
-0.3376059733760138
-0.3573753124167683
-0.3630468312456474
-0.3543967985359481
-0.3317664426874265
-0.2960484909730596
-0.2486519530365197
-0.1914465379687231
-0.1266888976108888
-0.05693360565456874
0.01506761574523776
-0.07840649617497765
-0.01366182732509777
0.05162177630483865
0.1148689927080194
0.1735848317304695
0.2254530579933932
0.2684275622576866
0.3008130767928637
0.3213320506727049
0.329175046886204
0.3240326731874538
0.3061077870692592
0.276107493395982
0.2352152503747633
0.1850441842349305
0.1275734542684174
0.06507017851713383
-0
-0.06507017851713383
-0.1275734542684174
-0.1850441842349305
-0.2352152503747633
-0.276107493395982
-0.3061077870692592
-0.3240326731874538
-0.329175046886204
-0.3213320506727049
-0.3008130767928637
-0.2684275622576866
-0.2254530579933932
-0.1735848317304695
-0.1148689927080194
-0.05162177630483865
0.01366182732509777
-0.06724554906818228
-0.01171710412490139
0.04427355972835304
0.09851771042441936
0.1488755127326895
0.1933604409516363
0.2302176438131973
0.257993170242965
0.2755913251431194
0.2823178926145113
0.2779075215386948
0.2625341932074218
0.2368043580702401
0.2017330123432905
0.1587036582145207
0.1094137271439782
0.05580761921288024
-0
-0.05580761921288024
-0.1094137271439782
-0.1587036582145207
-0.2017330123432905
-0.2368043580702401
-0.2625341932074218
-0.2779075215386948
-0.2823178926145113
-0.2755913251431194
-0.257993170242965
-0.2302176438131973
-0.1933604409516363
-0.1488755127326895
-0.09851771042441936
-0.04427355972835304
0.01171710412490139
-0.05343188469784375
-0.009310162014731596
0.03517882999467942
0.07828007975302306
0.1182933196455861
0.1536400985524934
0.1829260489369148
0.204995892163453
0.2189790121847713
0.2243237997956102
0.2208194126344793
0.2086040925396757
0.1881597121547303
0.1602927659099974
0.1261025552523382
0.08693782315898349
0.04434354862684432
-0
-0.04434354862684432
-0.08693782315898349
-0.1261025552523382
-0.1602927659099974
-0.1881597121547303
-0.2086040925396757
-0.2208194126344793
-0.2243237997956102
-0.2189790121847713
-0.204995892163453
-0.1829260489369148
-0.1536400985524934
-0.1182933196455861
-0.07828007975302306
-0.03517882999467942
0.009310162014731596
-0.03751042754529593
-0.006535950578263039
0.02469635800993853
0.05495443921584622
0.08304466557282704
0.1078589276308646
0.1284183469027493
0.1439118908787211
0.1537283668159438
0.1574805322047394
0.1550203707965911
0.146444931581788
0.1320925003794331
0.1125292550637781
0.08852693085446027
0.06103237673520436
0.03113020394610327
-0
-0.03113020394610327
-0.06103237673520436
-0.08852693085446027
-0.1125292550637781
-0.1320925003794331
-0.146444931581788
-0.1550203707965911
-0.1574805322047394
-0.1537283668159438
-0.1439118908787211
-0.1284183469027493
-0.1078589276308646
-0.08304466557282704
-0.05495443921584622
-0.02469635800993853
0.006535950578263039
-0.02010925076682312
-0.003503907520625867
0.01323965864290382
0.02946094382974253
0.04452004720112468
0.05782291392308288
0.06884476957267099
0.0771508215552401
0.08241341089868923
0.08442493781692473
0.08310605115204803
0.07850877863634856
0.07081447449083568
0.06032666532389591
0.04745907654664426
0.03271931164158005
0.01668882810836004
-0
-0.01668882810836004
-0.03271931164158005
-0.04745907654664426
-0.06032666532389591
-0.07081447449083568
-0.07850877863634856
-0.08310605115204803
-0.08442493781692473
-0.08241341089868923
-0.0771508215552401
-0.06884476957267099
-0.05782291392308288
-0.04452004720112468
-0.02946094382974253
-0.01323965864290382
0.003503907520625867
-0.001914799825149087
-0.0003336415456562988
0.001260678299178168
0.002805266628182292
0.004239192179998361
0.005505889142931074
0.00655538857557373
0.00734628959263908
0.007847392556221038
0.008038929845997871
0.007913345656682183
0.007475594061095774
0.006742943580811395
0.005744295973701873
0.004519046111015701
0.003115527919799948
0.001589107695476781
-0
-0.001589107695476781
-0.003115527919799948
-0.004519046111015701
-0.005744295973701873
-0.006742943580811395
-0.007475594061095774
-0.007913345656682183
-0.008038929845997871
-0.007847392556221038
-0.00734628959263908
-0.00655538857557373
-0.005505889142931074
-0.004239192179998361
-0.002805266628182292
-0.001260678299178168
0.0003336415456562988
0.01635518656270375
0.002849785994654947
-0.01076803356037784
-0.02396107335056603
-0.03620889143001136
-0.04702833316751085
-0.0559925908371009
-0.06274804042344541
-0.06702819146005236
-0.06866419960402159
-0.06759152724495446
-0.06385248939885504
-0.0575945844560381
-0.04906467563206888
-0.03859925265314249
-0.0266111578350876
-0.01357330018856011
0
0.01357330018856011
0.0266111578350876
0.03859925265314249
0.04906467563206888
0.0575945844560381
0.06385248939885504
0.06759152724495446
0.06866419960402159
0.06702819146005236
0.06274804042344541
0.0559925908371009
0.04702833316751085
0.03620889143001136
0.02396107335056603
0.01076803356037784
-0.002849785994654947
0.03397998994075822
0.005920794547982239
-0.02237196565508927
-0.04978219161857147
-0.07522859869807519
-0.09770737141004328
-0.1163317621665299
-0.1303670718897923
-0.139259632583688
-0.1426586485510046
-0.1404300346595588
-0.1326617057620883
-0.1196601086117352
-0.1019381330828824
-0.08019487957817215
-0.05528808076150251
-0.02820026553056437
0
0.02820026553056437
0.05528808076150251
0.08019487957817215
0.1019381330828824
0.1196601086117352
0.1326617057620883
0.1404300346595588
0.1426586485510046
0.139259632583688
0.1303670718897923
0.1163317621665299
0.09770737141004328
0.07522859869807519
0.04978219161857147
0.02237196565508927
-0.005920794547982239
0.05026434317482655
0.008758238291014063
-0.03309336351021146
-0.07363949100259845
-0.1112806715986034
-0.1445320276970943
-0.1720818524627347
-0.1928433543267725
-0.2059975289807446
-0.2110254676392252
-0.2077288270681385
-0.196237653872439
-0.1770052543889326
-0.1507903125578386
-0.1186269611912425
-0.08178398727364891
-0.04171478057294242
0
0.04171478057294242
0.08178398727364891
0.1186269611912425
0.1507903125578386
0.1770052543889326
0.196237653872439
0.2077288270681385
0.2110254676392252
0.2059975289807446
0.1928433543267725
0.1720818524627347
0.1445320276970943
0.1112806715986034
0.07363949100259845
0.03309336351021146
-0.008758238291014063
0.06456585750389428
0.01125018511663295
-0.0425092870564952
-0.09459184349024338
-0.1429429200016175
-0.1856551526512948
-0.2210436198573369
-0.247712309553687
-0.2646091893823097
-0.2710677074978784
-0.2668330868521054
-0.2520723756949828
-0.2273678578185423
-0.1936940824972927
-0.1523794202533153
-0.1050536610026824
-0.05358372174308456
0
0.05358372174308456
0.1050536610026824
0.1523794202533153
0.1936940824972927
0.2273678578185423
0.2520723756949828
0.2668330868521054
0.2710677074978784
0.2646091893823097
0.247712309553687
0.2210436198573369
0.1856551526512948
0.1429429200016175
0.09459184349024338
0.0425092870564952
-0.01125018511663295
0.07632036363376675
0.01329833215638512
-0.05024829486339909
-0.1118127160555143
-0.1689663245429347
-0.2194545121618601
-0.2612856097422471
-0.2928094549128741
-0.3127824880708208
-0.32041680859519
-0.3154112561247227
-0.2979632907982087
-0.2687612038033428
-0.2289569655140191
-0.1801207823087325
-0.1241791547227509
-0.06333888042973994
0
0.06333888042973994
0.1241791547227509
0.1801207823087325
0.2289569655140191
0.2687612038033428
0.2979632907982087
0.3154112561247227
0.32041680859519
0.3127824880708208
0.2928094549128741
0.2612856097422471
0.2194545121618601
0.1689663245429347
0.1118127160555143
0.05024829486339909
-0.01329833215638512
0.08506416721192228
0.01482188365373485
-0.05600509684263408
-0.1246227759160905
-0.1883243082157568
-0.244596781633887
-0.2912203472173974
-0.3263557882593809
-0.3486170741257543
-0.3571260366976651
-0.3515470125412932
-0.3321000842330828
-0.2995523984936854
-0.2551879036147828
-0.2007566999834547
-0.1384060017357902
-0.0705954329796664
0
0.0705954329796664
0.1384060017357902
0.2007566999834547
0.2551879036147828
0.2995523984936854
0.3321000842330828
0.3515470125412932
0.3571260366976651
0.3486170741257543
0.3263557882593809
0.2912203472173974
0.244596781633887
0.1883243082157568
0.1246227759160905
0.05600509684263408
-0.01482188365373485
0.09045234074468711
0.01576073821290322
-0.05955259739895668
-0.1325166890028766
-0.2002532330070427
-0.260090143271294
-0.3096669601510209
-0.3470279664302776
-0.3706993368862253
-0.3797472780718576
-0.3738148648060252
-0.35313612023677
-0.3185267840445227
-0.2713521329631211
-0.2134731230418403
-0.1471729782403702
-0.0750671213060502
0
0.0750671213060502
0.1471729782403702
0.2134731230418403
0.2713521329631211
0.3185267840445227
0.35313612023677
0.3738148648060252
0.3797472780718576
0.3706993368862253
0.3470279664302776
0.3096669601510209
0.260090143271294
0.2002532330070427
0.1325166890028766
0.05955259739895668
-0.01576073821290322
0.09227233037314578
0.01607785969199575
-0.0607508539473395
-0.1351830544899089
-0.2042825240584138
-0.2653234115241765
-0.3158977624841743
-0.3540105087778652
-0.3781581703763808
-0.3873881649945853
-0.3813363857673344
-0.3602415646174651
-0.3249358547062057
-0.2768120034715803
-0.2177684112200366
-0.1501342426121004
-0.07657754526070375
0
0.07657754526070375
0.1501342426121004
0.2177684112200366
0.2768120034715803
0.3249358547062057
0.3602415646174651
0.3813363857673344
0.3873881649945853
0.3781581703763808
0.3540105087778652
0.3158977624841743
0.2653234115241765
0.2042825240584138
0.1351830544899089
0.0607508539473395
-0.01607785969199575
0.09045234074468711
0.01576073821290322
-0.05955259739895668
-0.1325166890028766
-0.2002532330070427
-0.260090143271294
-0.3096669601510209
-0.3470279664302776
-0.3706993368862253
-0.3797472780718576
-0.3738148648060252
-0.35313612023677
-0.3185267840445227
-0.2713521329631211
-0.2134731230418403
-0.1471729782403702
-0.0750671213060502
0
0.0750671213060502
0.1471729782403702
0.2134731230418403
0.2713521329631211
0.3185267840445227
0.35313612023677
0.3738148648060252
0.3797472780718576
0.3706993368862253
0.3470279664302776
0.3096669601510209
0.260090143271294
0.2002532330070427
0.1325166890028766
0.05955259739895668
-0.01576073821290322
0.08506416721192228
0.01482188365373485
-0.05600509684263408
-0.1246227759160905
-0.1883243082157568
-0.244596781633887
-0.2912203472173974
-0.3263557882593809
-0.3486170741257543
-0.3571260366976651
-0.3515470125412932
-0.3321000842330828
-0.2995523984936854
-0.2551879036147828
-0.2007566999834547
-0.1384060017357902
-0.0705954329796664
0
0.0705954329796664
0.1384060017357902
0.2007566999834547
0.2551879036147828
0.2995523984936854
0.3321000842330828
0.3515470125412932
0.3571260366976651
0.3486170741257543
0.3263557882593809
0.2912203472173974
0.244596781633887
0.1883243082157568
0.1246227759160905
0.05600509684263408
-0.01482188365373485
0.07632036363376675
0.01329833215638512
-0.05024829486339909
-0.1118127160555143
-0.1689663245429347
-0.2194545121618601
-0.2612856097422471
-0.2928094549128741
-0.3127824880708208
-0.32041680859519
-0.3154112561247227
-0.2979632907982087
-0.2687612038033428
-0.2289569655140191
-0.1801207823087325
-0.1241791547227509
-0.06333888042973994
0
0.06333888042973994
0.1241791547227509
0.1801207823087325
0.2289569655140191
0.2687612038033428
0.2979632907982087
0.3154112561247227
0.32041680859519
0.3127824880708208
0.2928094549128741
0.2612856097422471
0.2194545121618601
0.1689663245429347
0.1118127160555143
0.05024829486339909
-0.01329833215638512
0.06456585750389428
0.01125018511663295
-0.0425092870564952
-0.09459184349024338
-0.1429429200016175
-0.1856551526512948
-0.2210436198573369
-0.247712309553687
-0.2646091893823097
-0.2710677074978784
-0.2668330868521054
-0.2520723756949828
-0.2273678578185423
-0.1936940824972927
-0.1523794202533153
-0.1050536610026824
-0.05358372174308456
0
0.05358372174308456
0.1050536610026824
0.1523794202533153
0.1936940824972927
0.2273678578185423
0.2520723756949828
0.2668330868521054
0.2710677074978784
0.2646091893823097
0.247712309553687
0.2210436198573369
0.1856551526512948
0.1429429200016175
0.09459184349024338
0.0425092870564952
-0.01125018511663295
0.05026434317482655
0.008758238291014063
-0.03309336351021146
-0.07363949100259845
-0.1112806715986034
-0.1445320276970943
-0.1720818524627347
-0.1928433543267725
-0.2059975289807446
-0.2110254676392252
-0.2077288270681385
-0.196237653872439
-0.1770052543889326
-0.1507903125578386
-0.1186269611912425
-0.08178398727364891
-0.04171478057294242
0
0.04171478057294242
0.08178398727364891
0.1186269611912425
0.1507903125578386
0.1770052543889326
0.196237653872439
0.2077288270681385
0.2110254676392252
0.2059975289807446
0.1928433543267725
0.1720818524627347
0.1445320276970943
0.1112806715986034
0.07363949100259845
0.03309336351021146
-0.008758238291014063
0.03397998994075822
0.005920794547982239
-0.02237196565508927
-0.04978219161857147
-0.07522859869807519
-0.09770737141004328
-0.1163317621665299
-0.1303670718897923
-0.139259632583688
-0.1426586485510046
-0.1404300346595588
-0.1326617057620883
-0.1196601086117352
-0.1019381330828824
-0.08019487957817215
-0.05528808076150251
-0.02820026553056437
0
0.02820026553056437
0.05528808076150251
0.08019487957817215
0.1019381330828824
0.1196601086117352
0.1326617057620883
0.1404300346595588
0.1426586485510046
0.139259632583688
0.1303670718897923
0.1163317621665299
0.09770737141004328
0.07522859869807519
0.04978219161857147
0.02237196565508927
-0.005920794547982239
0.01635518656270375
0.002849785994654947
-0.01076803356037784
-0.02396107335056603
-0.03620889143001136
-0.04702833316751085
-0.0559925908371009
-0.06274804042344541
-0.06702819146005236
-0.06866419960402159
-0.06759152724495446
-0.06385248939885504
-0.0575945844560381
-0.04906467563206888
-0.03859925265314249
-0.0266111578350876
-0.01357330018856011
0
0.01357330018856011
0.0266111578350876
0.03859925265314249
0.04906467563206888
0.0575945844560381
0.06385248939885504
0.06759152724495446
0.06866419960402159
0.06702819146005236
0.06274804042344541
0.0559925908371009
0.04702833316751085
0.03620889143001136
0.02396107335056603
0.01076803356037784
-0.002849785994654947
-0.001914799825149087
-0.0003336415456562988
0.001260678299178168
0.002805266628182292
0.004239192179998361
0.005505889142931074
0.00655538857557373
0.00734628959263908
0.007847392556221038
0.008038929845997871
0.007913345656682183
0.007475594061095774
0.006742943580811395
0.005744295973701873
0.004519046111015701
0.003115527919799948
0.001589107695476781
-0
-0.001589107695476781
-0.003115527919799948
-0.004519046111015701
-0.005744295973701873
-0.006742943580811395
-0.007475594061095774
-0.007913345656682183
-0.008038929845997871
-0.007847392556221038
-0.00734628959263908
-0.00655538857557373
-0.005505889142931074
-0.004239192179998361
-0.002805266628182292
-0.001260678299178168
0.0003336415456562988
-0.02010925076682312
-0.003503907520625867
0.01323965864290382
0.02946094382974253
0.04452004720112468
0.05782291392308288
0.06884476957267099
0.0771508215552401
0.08241341089868923
0.08442493781692473
0.08310605115204803
0.07850877863634856
0.07081447449083568
0.06032666532389591
0.04745907654664426
0.03271931164158005
0.01668882810836004
-0
-0.01668882810836004
-0.03271931164158005
-0.04745907654664426
-0.06032666532389591
-0.07081447449083568
-0.07850877863634856
-0.08310605115204803
-0.08442493781692473
-0.08241341089868923
-0.0771508215552401
-0.06884476957267099
-0.05782291392308288
-0.04452004720112468
-0.02946094382974253
-0.01323965864290382
0.003503907520625867
-0.03751042754529593
-0.006535950578263039
0.02469635800993853
0.05495443921584622
0.08304466557282704
0.1078589276308646
0.1284183469027493
0.1439118908787211
0.1537283668159438
0.1574805322047394
0.1550203707965911
0.146444931581788
0.1320925003794331
0.1125292550637781
0.08852693085446027
0.06103237673520436
0.03113020394610327
-0
-0.03113020394610327
-0.06103237673520436
-0.08852693085446027
-0.1125292550637781
-0.1320925003794331
-0.146444931581788
-0.1550203707965911
-0.1574805322047394
-0.1537283668159438
-0.1439118908787211
-0.1284183469027493
-0.1078589276308646
-0.08304466557282704
-0.05495443921584622
-0.02469635800993853
0.006535950578263039
-0.05343188469784375
-0.009310162014731596
0.03517882999467942
0.07828007975302306
0.1182933196455861
0.1536400985524934
0.1829260489369148
0.204995892163453
0.2189790121847713
0.2243237997956102
0.2208194126344793
0.2086040925396757
0.1881597121547303
0.1602927659099974
0.1261025552523382
0.08693782315898349
0.04434354862684432
-0
-0.04434354862684432
-0.08693782315898349
-0.1261025552523382
-0.1602927659099974
-0.1881597121547303
-0.2086040925396757
-0.2208194126344793
-0.2243237997956102
-0.2189790121847713
-0.204995892163453
-0.1829260489369148
-0.1536400985524934
-0.1182933196455861
-0.07828007975302306
-0.03517882999467942
0.009310162014731596
-0.06724554906818228
-0.01171710412490139
0.04427355972835304
0.09851771042441936
0.1488755127326895
0.1933604409516363
0.2302176438131973
0.257993170242965
0.2755913251431194
0.2823178926145113
0.2779075215386948
0.2625341932074218
0.2368043580702401
0.2017330123432905
0.1587036582145207
0.1094137271439782
0.05580761921288024
-0
-0.05580761921288024
-0.1094137271439782
-0.1587036582145207
-0.2017330123432905
-0.2368043580702401
-0.2625341932074218
-0.2779075215386948
-0.2823178926145113
-0.2755913251431194
-0.257993170242965
-0.2302176438131973
-0.1933604409516363
-0.1488755127326895
-0.09851771042441936
-0.04427355972835304
0.01171710412490139
-0.07840649617497765
-0.01366182732509777
0.05162177630483865
0.1148689927080194
0.1735848317304695
0.2254530579933932
0.2684275622576866
0.3008130767928637
0.3213320506727049
0.329175046886204
0.3240326731874538
0.3061077870692592
0.276107493395982
0.2352152503747633
0.1850441842349305
0.1275734542684174
0.06507017851713383
-0
-0.06507017851713383
-0.1275734542684174
-0.1850441842349305
-0.2352152503747633
-0.276107493395982
-0.3061077870692592
-0.3240326731874538
-0.329175046886204
-0.3213320506727049
-0.3008130767928637
-0.2684275622576866
-0.2254530579933932
-0.1735848317304695
-0.1148689927080194
-0.05162177630483865
0.01366182732509777
-0.0864744465130738
-0.01506761574523776
0.05693360565456874
0.1266888976108888
0.1914465379687231
0.2486519530365197
0.2960484909730596
0.3317664426874265
0.3543967985359481
0.3630468312456474
0.3573753124167683
0.3376059733760138
0.3045186793737824
0.2594186652876219
0.20408504642866
0.1407006356080861
0.07176583505553719
-0
-0.07176583505553719
-0.1407006356080861
-0.20408504642866
-0.2594186652876219
-0.3045186793737824
-0.3376059733760138
-0.3573753124167683
-0.3630468312456474
-0.3543967985359481
-0.3317664426874265
-0.2960484909730596
-0.2486519530365197
-0.1914465379687231
-0.1266888976108888
-0.05693360565456874
0.01506761574523776
-0.09113113379659987
-0.01587901353340744
0.05999950556081256
0.1335111509152725
0.201756018916939
0.2620419709483895
0.3119908334662597
0.3496322127161441
0.3734812232603689
0.3825970640665125
0.3766201314342075
0.3557862047212916
0.3209171452676537
0.2733884754276791
0.2150751166607775
0.1482774272157798
0.0756304570909523
-0
-0.0756304570909523
-0.1482774272157798
-0.2150751166607775
-0.2733884754276791
-0.3209171452676537
-0.3557862047212916
-0.3766201314342075
-0.3825970640665125
-0.3734812232603689
-0.3496322127161441
-0.3119908334662597
-0.2620419709483895
-0.201756018916939
-0.1335111509152725
-0.05999950556081256
0.01587901353340744
-0.09219285999766996
-0.01606401249054973
0.06069853172729642
0.1350666268668627
0.2041065838949388
0.2650948993466789
0.3156256926914742
0.3537056140392021
0.3778324782467085
0.387054523448929
0.3810079563710357
0.3599313033258475
0.3246560007751883
0.2765735966408095
0.2175808562147989
0.1500049381436437
0.0765115921602426
-0
-0.0765115921602426
-0.1500049381436437
-0.2175808562147989
-0.2765735966408095
-0.3246560007751883
-0.3599313033258475
-0.3810079563710357
-0.387054523448929
-0.3778324782467085
-0.3537056140392021
-0.3156256926914742
-0.2650948993466789
-0.2041065838949388
-0.1350666268668627
-0.06069853172729642
0.01606401249054973
-0.1652339016882179
-0.02879094390442906
0.1087877653898659
0.2420749909010572
0.3658127887351219
0.4751199229290012
0.5656844215243649
0.6339336761892552
0.6771753752601903
0.693703710646971
0.6828666689267653
0.6450917521135399
0.5818691134642446
0.4956927735841942
0.3899622357516945
0.2688483815623081
0.1371289370709843
-0
-0.1371289370709843
-0.2688483815623081
-0.3899622357516945
-0.4956927735841942
-0.5818691134642446
-0.6450917521135399
-0.6828666689267653
-0.693703710646971
-0.6771753752601903
-0.6339336761892552
-0.5656844215243649
-0.4751199229290012
-0.3658127887351219
-0.2420749909010572
-0.1087877653898659
0.02879094390442906
-0.1699818098637618
-0.02961823634592451
0.111913723897269
0.2490308868561293
0.3763242244187704
0.4887722409060647
0.5819390621416475
0.6521494227956079
0.6966336490625098
0.7136369173650495
0.7024884790218968
0.6636281200897386
0.5985888125858347
0.5099362414694912
0.401167592935431
0.2765735966408095
0.1410692640545563
-0
-0.1410692640545563
-0.2765735966408095
-0.401167592935431
-0.5099362414694912
-0.5985888125858347
-0.6636281200897386
-0.7024884790218968
-0.7136369173650495
-0.6966336490625098
-0.6521494227956079
-0.5819390621416475
-0.4887722409060647
-0.3763242244187704
-0.2490308868561293
-0.111913723897269
0.02961823634592451
-0.1680242380817146
-0.02927714206206404
0.1106248851203392
0.2461629574149822
0.3719903390270721
0.4831433636314165
0.575237242177308
0.6446390350149021
0.6886109649004671
0.7054184174374357
0.6943983685280227
0.6559855394941917
0.591695248094985
0.5040636319370714
0.3965476023586061
0.2733884754276791
0.1394446595698252
-0
-0.1394446595698252
-0.2733884754276791
-0.3965476023586061
-0.5040636319370714
-0.591695248094985
-0.6559855394941917
-0.6943983685280227
-0.7054184174374357
-0.6886109649004671
-0.6446390350149021
-0.575237242177308
-0.4831433636314165
-0.3719903390270721
-0.2461629574149822
-0.1106248851203392
0.02927714206206404
-0.1594384090658522
-0.02778111661545112
0.1049720914556495
0.2335843372912821
0.3529820966276283
0.4584553402983152
0.5458433365046714
0.6116987842821671
0.653423803389828
0.6693724160634403
0.6589154779097305
0.6224654965332692
0.5614603588454284
0.4783066089841
0.3762845144293196
0.2594186652876219
0.1323192113731228
-0
-0.1323192113731228
-0.2594186652876219
-0.3762845144293196
-0.4783066089841
-0.5614603588454284
-0.6224654965332692
-0.6589154779097305
-0.6693724160634403
-0.653423803389828
-0.6116987842821671
-0.5458433365046714
-0.4584553402983152
-0.3529820966276283
-0.2335843372912821
-0.1049720914556495
0.02778111661545112
-0.1445630184944437
-0.02518917554813905
0.095178335555492
0.2117912306682956
0.3200493385625252
0.415682069500883
0.4949168824031746
0.5546281048795972
0.5924602354451403
0.6069208638621229
0.5974395440686869
0.5643902972609673
0.5090768574223843
0.4336812413376767
0.3411776719131158
0.2352152503747633
0.1199740057177966
-0
-0.1199740057177966
-0.2352152503747633
-0.3411776719131158
-0.4336812413376767
-0.5090768574223843
-0.5643902972609673
-0.5974395440686869
-0.6069208638621229
-0.5924602354451403
-0.5546281048795972
-0.4949168824031746
-0.415682069500883
-0.3200493385625252
-0.2117912306682956
-0.095178335555492
0.02518917554813905
-0.1239848740583697
-0.0216035663235008
0.0816299636645073
0.1816433368267351
0.2744912035415502
0.3565108806673843
0.424466837875809
0.4756783335661477
0.508125165351892
0.5205273634503869
0.5123956832133596
0.484050904957802
0.4366111797532155
0.3719479203514001
0.2926119772831203
0.2017330123432905
0.1028960390016405
-0
-0.1028960390016405
-0.2017330123432905
-0.2926119772831203
-0.3719479203514001
-0.4366111797532155
-0.484050904957802
-0.5123956832133596
-0.5205273634503869
-0.508125165351892
-0.4756783335661477
-0.424466837875809
-0.3565108806673843
-0.2744912035415502
-0.1816433368267351
-0.0816299636645073
0.0216035663235008
-0.09851574694180076
-0.01716573484572363
0.06486143494774246
0.1443299365377619
0.2181048789315941
0.283275971916476
0.3372723318303575
0.3779638983481036
0.4037454615713941
0.4135999847031286
0.4071387243395017
0.3846165657056077
0.3469219678868175
0.2955419156986591
0.2325032607815747
0.1602927659099974
0.08175900662549386
-0
-0.08175900662549386
-0.1602927659099974
-0.2325032607815747
-0.2955419156986591
-0.3469219678868175
-0.3846165657056077
-0.4071387243395017
-0.4135999847031286